 Entering Gaussian System, Link 0=/home/mikolaj/local/opt/g03/g03
 Input=./job_LIG.inp
 Output=./job_LIG.log
 Initial command:
 /home/mikolaj/local/opt/g03/l1.exe /tmp/Gau-17508.inp -scrdir=/tmp/
 Entering Link 1 = /home/mikolaj/local/opt/g03/l1.exe PID=     17510.
  
 Copyright (c) 1988,1990,1992,1993,1995,1998,2003,2004,2007, Gaussian, Inc.
                  All Rights Reserved.
  
 This is the Gaussian(R) 03 program.  It is based on the
 the Gaussian(R) 98 system (copyright 1998, Gaussian, Inc.),
 the Gaussian(R) 94 system (copyright 1995, Gaussian, Inc.),
 the Gaussian 92(TM) system (copyright 1992, Gaussian, Inc.),
 the Gaussian 90(TM) system (copyright 1990, Gaussian, Inc.),
 the Gaussian 88(TM) system (copyright 1988, Gaussian, Inc.),
 the Gaussian 86(TM) system (copyright 1986, Carnegie Mellon
 University), and the Gaussian 82(TM) system (copyright 1983,
 Carnegie Mellon University). Gaussian is a federally registered
 trademark of Gaussian, Inc.
  
 This software contains proprietary and confidential information,
 including trade secrets, belonging to Gaussian, Inc.
  
 This software is provided under written license and may be
 used, copied, transmitted, or stored only in accord with that
 written license.
  
 The following legend is applicable only to US Government
 contracts under FAR:
  
                    RESTRICTED RIGHTS LEGEND
  
 Use, reproduction and disclosure by the US Government is
 subject to restrictions as set forth in subparagraphs (a)
 and (c) of the Commercial Computer Software - Restricted
 Rights clause in FAR 52.227-19.
  
 Gaussian, Inc.
 340 Quinnipiac St., Bldg. 40, Wallingford CT 06492
  
  
 ---------------------------------------------------------------
 Warning -- This program may not be used in any manner that
 competes with the business of Gaussian, Inc. or will provide
 assistance to any competitor of Gaussian, Inc.  The licensee
 of this program is prohibited from giving any competitor of
 Gaussian, Inc. access to this program.  By using this program,
 the user acknowledges that Gaussian, Inc. is engaged in the
 business of creating and licensing software in the field of
 computational chemistry and represents and warrants to the
 licensee that it is not a competitor of Gaussian, Inc. and that
 it will not use this program in any manner prohibited above.
 ---------------------------------------------------------------
  

 Cite this work as:
 Gaussian 03, Revision E.01,
 M. J. Frisch, G. W. Trucks, H. B. Schlegel, G. E. Scuseria, 
 M. A. Robb, J. R. Cheeseman, J. A. Montgomery, Jr., T. Vreven, 
 K. N. Kudin, J. C. Burant, J. M. Millam, S. S. Iyengar, J. Tomasi, 
 V. Barone, B. Mennucci, M. Cossi, G. Scalmani, N. Rega, 
 G. A. Petersson, H. Nakatsuji, M. Hada, M. Ehara, K. Toyota, 
 R. Fukuda, J. Hasegawa, M. Ishida, T. Nakajima, Y. Honda, O. Kitao, 
 H. Nakai, M. Klene, X. Li, J. E. Knox, H. P. Hratchian, J. B. Cross, 
 V. Bakken, C. Adamo, J. Jaramillo, R. Gomperts, R. E. Stratmann, 
 O. Yazyev, A. J. Austin, R. Cammi, C. Pomelli, J. W. Ochterski, 
 P. Y. Ayala, K. Morokuma, G. A. Voth, P. Salvador, J. J. Dannenberg, 
 V. G. Zakrzewski, S. Dapprich, A. D. Daniels, M. C. Strain, 
 O. Farkas, D. K. Malick, A. D. Rabuck, K. Raghavachari, 
 J. B. Foresman, J. V. Ortiz, Q. Cui, A. G. Baboul, S. Clifford, 
 J. Cioslowski, B. B. Stefanov, G. Liu, A. Liashenko, P. Piskorz, 
 I. Komaromi, R. L. Martin, D. J. Fox, T. Keith, M. A. Al-Laham, 
 C. Y. Peng, A. Nanayakkara, M. Challacombe, P. M. W. Gill, 
 B. Johnson, W. Chen, M. W. Wong, C. Gonzalez, and J. A. Pople, 
 Gaussian, Inc., Wallingford CT, 2004.
 
 ******************************************
 Gaussian 03:  EM64L-G03RevE.01 11-Sep-2007
                19-Jul-2017 
 ******************************************
 %mem=1gb
 %chk=./job_LIG.chk
 -----------------------------
 #P B3LYP/6-31G* NoSymm POP=MK
 -----------------------------
 1/38=1/1;
 2/15=1,17=6,18=5,40=1/2;
 3/5=1,6=6,7=1,11=2,16=1,25=1,30=1,74=-5/1,2,3;
 4//1;
 5/5=2,32=1,38=5/2;
 6/7=2,8=2,9=2,10=2,15=8,20=1,28=1/1,2;
 99/5=1,9=1/99;
 Leave Link    1 at Wed Jul 19 17:44:07 2017, MaxMem=  134217728 cpu:       0.0
 (Enter /home/mikolaj/local/opt/g03/l101.exe)
 -------------------------------------
 Input file generated by MolarisTools.
 -------------------------------------
 Symbolic Z-matrix:
 Charge =  0 Multiplicity = 1
 C                    -1.695     1.207    -0.053 
 C                    -0.319     1.819     0.169 
 C                    -0.257     3.288    -0.256 
 C                     1.086     3.959     0.104 
 O                    -1.616    -0.196     0.183 
 O                    -1.317     4.003     0.387 
 N                     2.26      3.314    -0.476 
 H                    -2.035     1.363    -1.082 
 H                    -2.432     1.629     0.637 
 H                     0.428     1.231    -0.378 
 H                    -0.067     1.72      1.233 
 H                    -0.426     3.358    -1.338 
 H                     1.194     4.01      1.195 
 H                     1.057     5.001    -0.239 
 H                    -2.51     -0.553     0.045 
 H                    -1.288     4.919     0.059 
 H                     2.374     2.386    -0.065 
 H                     3.095     3.834    -0.205 
 
                    Isotopes and Nuclear Properties:
 (Nuclear quadrupole moments (NQMom) in fm**2, nuclear magnetic moments (NMagM)
  in nuclear magnetons)

  Atom         1           2           3           4           5           6           7           8           9          10
 IAtWgt=          12          12          12          12          16          16          14           1           1           1
 AtmWgt=  12.0000000  12.0000000  12.0000000  12.0000000  15.9949146  15.9949146  14.0030740   1.0078250   1.0078250   1.0078250
 NucSpn=           0           0           0           0           0           0           2           1           1           1
 AtZEff=   0.0000000   0.0000000   0.0000000   0.0000000   0.0000000   0.0000000   0.0000000   0.0000000   0.0000000   0.0000000
 NQMom=    0.0000000   0.0000000   0.0000000   0.0000000   0.0000000   0.0000000   2.0440000   0.0000000   0.0000000   0.0000000
 NMagM=    0.0000000   0.0000000   0.0000000   0.0000000   0.0000000   0.0000000   0.4037610   2.7928460   2.7928460   2.7928460

  Atom        11          12          13          14          15          16          17          18
 IAtWgt=           1           1           1           1           1           1           1           1
 AtmWgt=   1.0078250   1.0078250   1.0078250   1.0078250   1.0078250   1.0078250   1.0078250   1.0078250
 NucSpn=           1           1           1           1           1           1           1           1
 AtZEff=   0.0000000   0.0000000   0.0000000   0.0000000   0.0000000   0.0000000   0.0000000   0.0000000
 NQMom=    0.0000000   0.0000000   0.0000000   0.0000000   0.0000000   0.0000000   0.0000000   0.0000000
 NMagM=    2.7928460   2.7928460   2.7928460   2.7928460   2.7928460   2.7928460   2.7928460   2.7928460
 Leave Link  101 at Wed Jul 19 17:44:10 2017, MaxMem=  134217728 cpu:       0.0
 (Enter /home/mikolaj/local/opt/g03/l202.exe)
                          Input orientation:                          
 ---------------------------------------------------------------------
 Center     Atomic     Atomic              Coordinates (Angstroms)
 Number     Number      Type              X           Y           Z
 ---------------------------------------------------------------------
    1          6             0       -1.695000    1.207000   -0.053000
    2          6             0       -0.319000    1.819000    0.169000
    3          6             0       -0.257000    3.288000   -0.256000
    4          6             0        1.086000    3.959000    0.104000
    5          8             0       -1.616000   -0.196000    0.183000
    6          8             0       -1.317000    4.003000    0.387000
    7          7             0        2.260000    3.314000   -0.476000
    8          1             0       -2.035000    1.363000   -1.082000
    9          1             0       -2.432000    1.629000    0.637000
   10          1             0        0.428000    1.231000   -0.378000
   11          1             0       -0.067000    1.720000    1.233000
   12          1             0       -0.426000    3.358000   -1.338000
   13          1             0        1.194000    4.010000    1.195000
   14          1             0        1.057000    5.001000   -0.239000
   15          1             0       -2.510000   -0.553000    0.045000
   16          1             0       -1.288000    4.919000    0.059000
   17          1             0        2.374000    2.386000   -0.065000
   18          1             0        3.095000    3.834000   -0.205000
 ---------------------------------------------------------------------
                    Distance matrix (angstroms):
                    1          2          3          4          5
     1  C    0.000000
     2  C    1.522237   0.000000
     3  C    2.537639   1.530500   0.000000
     4  C    3.915624   2.560830   1.543856   0.000000
     5  O    1.424902   2.396379   3.765350   4.956921   0.000000
     6  O    2.855538   2.411096   1.431179   2.420007   4.214572
     7  N    4.501156   3.049966   2.526730   1.459692   5.270461
     8  H    1.094887   2.172002   2.747578   4.229238   2.050919
     9  H    1.094236   2.172531   2.877561   4.253153   2.050024
    10  H    2.147866   1.096796   2.171488   2.847327   2.555188
    11  H    2.137136   1.097908   2.170678   2.759922   2.678238
    12  H    2.808627   2.156622   1.097354   2.174100   4.044806
    13  H    4.214337   2.853476   2.175336   1.097518   5.158554
    14  H    4.690686   3.490697   2.158994   1.097385   5.859336
    15  H    1.942017   3.231446   4.463171   5.769995   0.972486
    16  H    3.735925   3.249779   1.955082   2.561152   5.127005
    17  H    4.236384   2.761973   2.787875   2.040057   4.759026
    18  H    5.465193   3.981896   3.396560   2.036464   6.211680
                    6          7          8          9         10
     6  O    0.000000
     7  N    3.743584   0.000000
     8  H    3.105332   4.756118   0.000000
     9  H    2.634692   5.108117   1.784188   0.000000
    10  H    3.363664   2.775737   2.565036   3.060756   0.000000
    11  H    2.736842   3.297946   3.059362   2.440640   1.754841
    12  H    2.045857   2.821272   2.575741   3.303650   2.484964
    13  H    2.637809   2.100717   4.755815   4.373603   3.283889
    14  H    2.650237   2.085509   4.848315   4.930607   3.824639
    15  H    4.722007   6.162632   2.273062   2.262227   3.463153
    16  H    0.973386   3.930719   3.808546   3.530853   4.091084
    17  H    4.054932   1.021323   4.638976   4.915637   2.284493
    18  H    4.454747   1.020326   5.761239   6.009885   3.730741
                   11         12         13         14         15
    11  H    0.000000
    12  H    3.069522   0.000000
    13  H    2.614510   3.076620   0.000000
    14  H    3.767641   2.471141   1.748487   0.000000
    15  H    3.542051   4.642377   5.988580   6.606895   0.000000
    16  H    3.619768   2.265254   2.876995   2.365281   5.606805
    17  H    2.843737   3.225727   2.370100   2.933085   5.701165
    18  H    4.066335   3.729304   2.367441   2.348721   7.122099
                   16         17         18
    16  H    0.000000
    17  H    4.454403   0.000000
    18  H    4.523009   1.623621   0.000000
 Symmetry turned off by external request.
 Stoichiometry    C4H11NO2
 Framework group  C1[X(C4H11NO2)]
 Deg. of freedom    48
 Full point group                 C1
 Rotational constants (GHZ):      4.1375462      1.3546317      1.0670905
 Leave Link  202 at Wed Jul 19 17:44:12 2017, MaxMem=  134217728 cpu:       0.1
 (Enter /home/mikolaj/local/opt/g03/l301.exe)
 Standard basis: 6-31G(d) (6D, 7F)
 Integral buffers will be    131072 words long.
 Raffenetti 2 integral format.
 Two-electron integral symmetry is turned off.
   127 basis functions,   240 primitive gaussians,   127 cartesian basis functions
    29 alpha electrons       29 beta electrons
       nuclear repulsion energy       327.3243991021 Hartrees.
 IExCor= 402 DFT=T Ex=B+HF Corr=LYP ExCW=0 ScaHFX=  0.200000
 ScaDFX=  0.800000  0.720000  1.000000  0.810000
 IRadAn=      0 IRanWt=     -1 IRanGd=            0 ICorTp=0
 NAtoms=   18 NActive=   18 NUniq=   18 SFac= 7.50D-01 NAtFMM=   80 NAOKFM=F Big=F
 Leave Link  301 at Wed Jul 19 17:44:14 2017, MaxMem=  134217728 cpu:       0.0
 (Enter /home/mikolaj/local/opt/g03/l302.exe)
 NPDir=0 NMtPBC=     1 NCelOv=     1 NCel=       1 NClECP=     1 NCelD=      1
         NCelK=      1 NCelE2=     1 NClLst=     1 CellRange=     0.0.
 One-electron integrals computed using PRISM.
 NBasis=   127 RedAO= T  NBF=   127
 NBsUse=   127 1.00D-06 NBFU=   127
 Precomputing XC quadrature grid using
 IXCGrd= 2 IRadAn=           0 IRanWt=          -1 IRanGd=           0.
 NRdTot=    1126 NPtTot=      143250 NUsed=      151205 NTot=      151237
 NSgBfM=   127   127   127   127.
 Leave Link  302 at Wed Jul 19 17:44:16 2017, MaxMem=  134217728 cpu:       0.3
 (Enter /home/mikolaj/local/opt/g03/l303.exe)
 DipDrv:  MaxL=1.
 Leave Link  303 at Wed Jul 19 17:44:19 2017, MaxMem=  134217728 cpu:       0.0
 (Enter /home/mikolaj/local/opt/g03/l401.exe)
 Harris functional with IExCor=  402 diagonalized for initial guess.
 ExpMin= 1.61D-01 ExpMax= 5.48D+03 ExpMxC= 8.25D+02 IAcc=1 IRadAn=         1 AccDes= 1.00D-06
 HarFok:  IExCor= 402 AccDes= 1.00D-06 IRadAn=         1 IDoV=1
 ScaDFX=  1.000000  1.000000  1.000000  1.000000
 Harris En= -364.332798184102    
 Leave Link  401 at Wed Jul 19 17:44:22 2017, MaxMem=  134217728 cpu:       0.8
 (Enter /home/mikolaj/local/opt/g03/l502.exe)
 Warning!  Cutoffs for single-point calculations used.
 Closed shell SCF:
 Requested convergence on RMS density matrix=1.00D-04 within 128 cycles.
 Requested convergence on MAX density matrix=1.00D-02.
 Requested convergence on             energy=5.00D-05.
 No special actions if energy rises.
 Using DIIS extrapolation, IDIIS=  1040.
 Two-electron integral symmetry not used.
       151204 words used for storage of precomputed grid.
 Keep R1 integrals in memory in canonical form, NReq=    35130915.
 IEnd=    226133 IEndB=    226133 NGot= 134217728 MDV= 100988222
 LenX= 100988222
 Symmetry not used in FoFDir.
 MinBra= 0 MaxBra= 2 Meth= 1.
 IRaf=       0 NMat=   1 IRICut=       1 DoRegI=T DoRafI=F ISym2E= 0 JSym2E=0.

 Cycle   1  Pass 1  IDiag  1:
 E= -363.909311589338    
 DIIS: error= 3.75D-02 at cycle   1 NSaved=   1.
 NSaved= 1 IEnMin= 1 EnMin= -363.909311589338     IErMin= 1 ErrMin= 3.75D-02
 ErrMax= 3.75D-02 EMaxC= 1.00D-01 BMatC= 3.24D-01 BMatP= 3.24D-01
 IDIUse=3 WtCom= 6.25D-01 WtEn= 3.75D-01
 Coeff-Com:  0.100D+01
 Coeff-En:   0.100D+01
 Coeff:      0.100D+01
 Gap=     0.280 Goal=   None    Shift=    0.000
 GapD=    0.280 DampG=1.000 DampE=0.500 DampFc=0.5000 IDamp=-1.
 Damping current iteration by 5.00D-01
 RMSDP=9.92D-03 MaxDP=1.69D-01              OVMax= 1.72D-01

 Cycle   2  Pass 1  IDiag  1:
 E= -364.030922550963     Delta-E=       -0.121610961625 Rises=F Damp=T
 DIIS: error= 7.68D-03 at cycle   2 NSaved=   2.
 NSaved= 2 IEnMin= 2 EnMin= -364.030922550963     IErMin= 2 ErrMin= 7.68D-03
 ErrMax= 7.68D-03 EMaxC= 1.00D-01 BMatC= 1.43D-02 BMatP= 3.24D-01
 IDIUse=3 WtCom= 9.23D-01 WtEn= 7.68D-02
 Coeff-Com:  0.120D+00 0.880D+00
 Coeff-En:   0.195D+00 0.805D+00
 Coeff:      0.126D+00 0.874D+00
 Gap=     0.298 Goal=   None    Shift=    0.000
 RMSDP=1.51D-03 MaxDP=2.41D-02 DE=-1.22D-01 OVMax= 1.04D-01

 Cycle   3  Pass 1  IDiag  1:
 E= -364.203421899497     Delta-E=       -0.172499348534 Rises=F Damp=F
 DIIS: error= 2.86D-03 at cycle   3 NSaved=   3.
 NSaved= 3 IEnMin= 3 EnMin= -364.203421899497     IErMin= 3 ErrMin= 2.86D-03
 ErrMax= 2.86D-03 EMaxC= 1.00D-01 BMatC= 2.68D-03 BMatP= 1.43D-02
 IDIUse=3 WtCom= 9.71D-01 WtEn= 2.86D-02
 Coeff-Com:  0.215D-01 0.289D+00 0.690D+00
 Coeff-En:   0.000D+00 0.000D+00 0.100D+01
 Coeff:      0.208D-01 0.280D+00 0.699D+00
 Gap=     0.301 Goal=   None    Shift=    0.000
 RMSDP=5.22D-04 MaxDP=1.01D-02 DE=-1.72D-01 OVMax= 1.04D-02

 Cycle   4  Pass 1  IDiag  1:
 E= -364.204798911142     Delta-E=       -0.001377011645 Rises=F Damp=F
 DIIS: error= 1.82D-03 at cycle   4 NSaved=   4.
 NSaved= 4 IEnMin= 4 EnMin= -364.204798911142     IErMin= 4 ErrMin= 1.82D-03
 ErrMax= 1.82D-03 EMaxC= 1.00D-01 BMatC= 9.81D-04 BMatP= 2.68D-03
 IDIUse=3 WtCom= 9.82D-01 WtEn= 1.82D-02
 Coeff-Com:  0.155D-02 0.684D-01 0.388D+00 0.542D+00
 Coeff-En:   0.000D+00 0.000D+00 0.273D+00 0.727D+00
 Coeff:      0.152D-02 0.672D-01 0.386D+00 0.546D+00
 Gap=     0.300 Goal=   None    Shift=    0.000
 RMSDP=2.42D-04 MaxDP=4.50D-03 DE=-1.38D-03 OVMax= 4.90D-03

 Cycle   5  Pass 1  IDiag  1:
 E= -364.205619770221     Delta-E=       -0.000820859080 Rises=F Damp=F
 DIIS: error= 2.82D-04 at cycle   5 NSaved=   5.
 NSaved= 5 IEnMin= 5 EnMin= -364.205619770221     IErMin= 5 ErrMin= 2.82D-04
 ErrMax= 2.82D-04 EMaxC= 1.00D-01 BMatC= 2.09D-05 BMatP= 9.81D-04
 IDIUse=3 WtCom= 9.97D-01 WtEn= 2.82D-03
 Coeff-Com: -0.627D-03 0.361D-02 0.831D-01 0.189D+00 0.725D+00
 Coeff-En:   0.000D+00 0.000D+00 0.000D+00 0.000D+00 0.100D+01
 Coeff:     -0.626D-03 0.360D-02 0.828D-01 0.189D+00 0.725D+00
 Gap=     0.302 Goal=   None    Shift=    0.000
 RMSDP=4.39D-05 MaxDP=7.47D-04 DE=-8.21D-04 OVMax= 7.92D-04

 Cycle   6  Pass 1  IDiag  1:
 E= -364.205634598020     Delta-E=       -0.000014827799 Rises=F Damp=F
 DIIS: error= 8.81D-05 at cycle   6 NSaved=   6.
 NSaved= 6 IEnMin= 6 EnMin= -364.205634598020     IErMin= 6 ErrMin= 8.81D-05
 ErrMax= 8.81D-05 EMaxC= 1.00D-01 BMatC= 3.22D-06 BMatP= 2.09D-05
 IDIUse=1 WtCom= 1.00D+00 WtEn= 0.00D+00
 Coeff-Com: -0.330D-03-0.946D-03 0.294D-01 0.814D-01 0.395D+00 0.495D+00
 Coeff:     -0.330D-03-0.946D-03 0.294D-01 0.814D-01 0.395D+00 0.495D+00
 Gap=     0.301 Goal=   None    Shift=    0.000
 RMSDP=1.24D-05 MaxDP=3.58D-04 DE=-1.48D-05 OVMax= 3.59D-04

 SCF Done:  E(RB+HF-LYP) =  -364.205634598     A.U. after    6 cycles
             Convg  =    0.1242D-04             -V/T =  2.0090
             S**2   =   0.0000
 KE= 3.609649570751D+02 PE=-1.505586959355D+03 EE= 4.530919685793D+02
 Leave Link  502 at Wed Jul 19 17:44:39 2017, MaxMem=  134217728 cpu:      15.1
 (Enter /home/mikolaj/local/opt/g03/l601.exe)
 Copying SCF densities to generalized density rwf, ISCF=0 IROHF=0.

 **********************************************************************

            Population analysis using the SCF density.

 **********************************************************************

 Alpha  occ. eigenvalues --  -19.14313 -19.13076 -14.31264 -10.23475 -10.21948
 Alpha  occ. eigenvalues --  -10.20616 -10.17855  -1.01617  -1.00372  -0.88075
 Alpha  occ. eigenvalues --   -0.77008  -0.69394  -0.62077  -0.57521  -0.51837
 Alpha  occ. eigenvalues --   -0.49544  -0.49063  -0.45150  -0.44433  -0.41140
 Alpha  occ. eigenvalues --   -0.40749  -0.37847  -0.37008  -0.35045  -0.32704
 Alpha  occ. eigenvalues --   -0.31207  -0.26705  -0.25405  -0.23254
 Alpha virt. eigenvalues --    0.06867   0.07507   0.08100   0.12349   0.13425
 Alpha virt. eigenvalues --    0.14334   0.16236   0.17904   0.18822   0.19281
 Alpha virt. eigenvalues --    0.20451   0.21008   0.23067   0.25396   0.27851
 Alpha virt. eigenvalues --    0.28038   0.29624   0.52670   0.55021   0.55267
 Alpha virt. eigenvalues --    0.57954   0.58364   0.59751   0.64129   0.65737
 Alpha virt. eigenvalues --    0.70377   0.72458   0.74030   0.74847   0.79090
 Alpha virt. eigenvalues --    0.80576   0.82410   0.83432   0.85323   0.86441
 Alpha virt. eigenvalues --    0.89649   0.90553   0.91473   0.92626   0.93796
 Alpha virt. eigenvalues --    0.95708   0.97089   0.98094   1.00144   1.02083
 Alpha virt. eigenvalues --    1.03432   1.07002   1.14743   1.17548   1.23785
 Alpha virt. eigenvalues --    1.30051   1.32986   1.39756   1.42062   1.47967
 Alpha virt. eigenvalues --    1.53115   1.59163   1.60612   1.64640   1.70833
 Alpha virt. eigenvalues --    1.72913   1.75651   1.80094   1.85493   1.86948
 Alpha virt. eigenvalues --    1.92322   1.92729   1.96030   1.98510   2.00126
 Alpha virt. eigenvalues --    2.03181   2.06937   2.10043   2.16560   2.19587
 Alpha virt. eigenvalues --    2.24561   2.29300   2.33668   2.35574   2.40207
 Alpha virt. eigenvalues --    2.43393   2.44940   2.47744   2.49964   2.53220
 Alpha virt. eigenvalues --    2.61596   2.67217   2.73635   2.83406   2.88654
 Alpha virt. eigenvalues --    2.94278   3.71388   3.78099   3.85398   4.19756
 Alpha virt. eigenvalues --    4.31717   4.41833   4.57353
          Condensed to atoms (all electrons):
              1          2          3          4          5          6
     1  C    4.793526   0.373985  -0.027015   0.004549   0.239994   0.001231
     2  C    0.373985   5.122481   0.348857  -0.040801  -0.046947  -0.048676
     3  C   -0.027015   0.348857   4.781700   0.360485   0.002023   0.217559
     4  C    0.004549  -0.040801   0.360485   5.023171  -0.000028  -0.037669
     5  O    0.239994  -0.046947   0.002023  -0.000028   8.280609   0.000043
     6  O    0.001231  -0.048676   0.217559  -0.037669   0.000043   8.294985
     7  N    0.000014  -0.003398  -0.039730   0.264649   0.000000   0.002338
     8  H    0.366845  -0.049977   0.002285   0.000077  -0.042603  -0.000460
     9  H    0.370841  -0.034077  -0.004059  -0.000112  -0.041786   0.006817
    10  H   -0.032566   0.353900  -0.024968  -0.005437   0.003932   0.002806
    11  H   -0.035881   0.354558  -0.030929  -0.006706   0.003233   0.000154
    12  H   -0.007276  -0.054008   0.361990  -0.056157  -0.000036  -0.041550
    13  H   -0.000092  -0.011256  -0.043590   0.364826  -0.000001   0.005491
    14  H   -0.000127   0.005274  -0.027307   0.360822   0.000000  -0.000448
    15  H   -0.023876   0.006793  -0.000283   0.000003   0.232272   0.000008
    16  H    0.000064   0.007666  -0.025184  -0.003499   0.000000   0.230868
    17  H   -0.000164   0.006684  -0.007864  -0.039671   0.000001  -0.000001
    18  H    0.000001   0.000043   0.005163  -0.027403   0.000000  -0.000087
              7          8          9         10         11         12
     1  C    0.000014   0.366845   0.370841  -0.032566  -0.035881  -0.007276
     2  C   -0.003398  -0.049977  -0.034077   0.353900   0.354558  -0.054008
     3  C   -0.039730   0.002285  -0.004059  -0.024968  -0.030929   0.361990
     4  C    0.264649   0.000077  -0.000112  -0.005437  -0.006706  -0.056157
     5  O    0.000000  -0.042603  -0.041786   0.003932   0.003233  -0.000036
     6  O    0.002338  -0.000460   0.006817   0.002806   0.000154  -0.041550
     7  N    6.960285  -0.000006  -0.000004   0.003440  -0.000169   0.007504
     8  H   -0.000006   0.659776  -0.053072  -0.006285   0.006578   0.005672
     9  H   -0.000004  -0.053072   0.618703   0.006151  -0.008304   0.000085
    10  H    0.003440  -0.006285   0.006151   0.578530  -0.037483  -0.000998
    11  H   -0.000169   0.006578  -0.008304  -0.037483   0.595732   0.006558
    12  H    0.007504   0.005672   0.000085  -0.000998   0.006558   0.660162
    13  H   -0.051109   0.000008   0.000015   0.000748   0.006014   0.007540
    14  H   -0.036826   0.000004  -0.000001  -0.000111  -0.000022  -0.007259
    15  H    0.000000  -0.004240  -0.003994  -0.000066  -0.000187  -0.000001
    16  H   -0.000044  -0.000094  -0.000186  -0.000229  -0.000149  -0.005357
    17  H    0.309592   0.000009   0.000002   0.001256   0.000452  -0.000285
    18  H    0.306467   0.000000   0.000000  -0.000046  -0.000080  -0.000271
             13         14         15         16         17         18
     1  C   -0.000092  -0.000127  -0.023876   0.000064  -0.000164   0.000001
     2  C   -0.011256   0.005274   0.006793   0.007666   0.006684   0.000043
     3  C   -0.043590  -0.027307  -0.000283  -0.025184  -0.007864   0.005163
     4  C    0.364826   0.360822   0.000003  -0.003499  -0.039671  -0.027403
     5  O   -0.000001   0.000000   0.232272   0.000000   0.000001   0.000000
     6  O    0.005491  -0.000448   0.000008   0.230868  -0.000001  -0.000087
     7  N   -0.051109  -0.036826   0.000000  -0.000044   0.309592   0.306467
     8  H    0.000008   0.000004  -0.004240  -0.000094   0.000009   0.000000
     9  H    0.000015  -0.000001  -0.003994  -0.000186   0.000002   0.000000
    10  H    0.000748  -0.000111  -0.000066  -0.000229   0.001256  -0.000046
    11  H    0.006014  -0.000022  -0.000187  -0.000149   0.000452  -0.000080
    12  H    0.007540  -0.007259  -0.000001  -0.005357  -0.000285  -0.000271
    13  H    0.656473  -0.051302   0.000000  -0.000627  -0.005515  -0.003580
    14  H   -0.051302   0.626158   0.000000   0.006267   0.006836  -0.005071
    15  H    0.000000   0.000000   0.405516  -0.000001   0.000000   0.000000
    16  H   -0.000627   0.006267  -0.000001   0.400430   0.000012  -0.000008
    17  H   -0.005515   0.006836   0.000000   0.000012   0.461133  -0.033187
    18  H   -0.003580  -0.005071   0.000000  -0.000008  -0.033187   0.459664
 Mulliken atomic charges:
              1
     1  C   -0.024053
     2  C   -0.291103
     3  C    0.150867
     4  C   -0.161100
     5  O   -0.630708
     6  O   -0.633413
     7  N   -0.723002
     8  H    0.115482
     9  H    0.142981
    10  H    0.157426
    11  H    0.146631
    12  H    0.123685
    13  H    0.125958
    14  H    0.123112
    15  H    0.388057
    16  H    0.390072
    17  H    0.300711
    18  H    0.298397
 Sum of Mulliken charges=   0.00000
 Atomic charges with hydrogens summed into heavy atoms:
              1
     1  C    0.234410
     2  C    0.012954
     3  C    0.274552
     4  C    0.087970
     5  O   -0.242651
     6  O   -0.243341
     7  N   -0.123895
     8  H    0.000000
     9  H    0.000000
    10  H    0.000000
    11  H    0.000000
    12  H    0.000000
    13  H    0.000000
    14  H    0.000000
    15  H    0.000000
    16  H    0.000000
    17  H    0.000000
    18  H    0.000000
 Sum of Mulliken charges=   0.00000
 Electronic spatial extent (au):  <R**2>=  2377.3143
 Charge=     0.0000 electrons
 Dipole moment (field-independent basis, Debye):
    X=    -0.0559    Y=     1.4731    Z=     0.0339  Tot=     1.4746
 Quadrupole moment (field-independent basis, Debye-Ang):
   XX=   -36.7071   YY=   -33.2613   ZZ=   -46.9476
   XY=     3.6312   XZ=     5.5104   YZ=     0.4503
 Traceless Quadrupole moment (field-independent basis, Debye-Ang):
   XX=     2.2649   YY=     5.7107   ZZ=    -7.9756
   XY=     3.6312   XZ=     5.5104   YZ=     0.4503
 Octapole moment (field-independent basis, Debye-Ang**2):
  XXX=    26.2128  YYY=  -253.2925  ZZZ=     1.6594  XYY=    15.6573
  XXY=  -107.8033  XXZ=     5.4326  XZZ=     5.4231  YZZ=  -119.8169
  YYZ=    -4.0105  XYZ=    16.3840
 Hexadecapole moment (field-independent basis, Debye-Ang**3):
 XXXX=  -506.2712 YYYY= -1778.8536 ZZZZ=   -91.6541 XXXY=   -10.9924
 XXXZ=    43.6280 YYYX=   -83.6523 YYYZ=   -27.5594 ZZZX=    33.2072
 ZZZY=    11.7519 XXYY=  -442.0930 XXZZ=  -131.0348 YYZZ=  -433.1942
 XXYZ=    20.6276 YYXZ=    64.2902 ZZXY=   -43.5085
 N-N= 3.273243991021D+02 E-N=-1.505590901681D+03  KE= 3.609649570751D+02
 No NMR shielding tensors so no spin-rotation constants.
 Leave Link  601 at Wed Jul 19 17:44:41 2017, MaxMem=  134217728 cpu:       0.1
 (Enter /home/mikolaj/local/opt/g03/l602.exe)
 Merz-Kollman atomic radii used.

 **********************************************************************

            Electrostatic Properties Using The SCF Density

 **********************************************************************

       Atomic Center    1 is at  -1.695000  1.207000 -0.053000
       Atomic Center    2 is at  -0.319000  1.819000  0.169000
       Atomic Center    3 is at  -0.257000  3.288000 -0.256000
       Atomic Center    4 is at   1.086000  3.959000  0.104000
       Atomic Center    5 is at  -1.616000 -0.196000  0.183000
       Atomic Center    6 is at  -1.317000  4.003000  0.387000
       Atomic Center    7 is at   2.260000  3.314000 -0.476000
       Atomic Center    8 is at  -2.035000  1.363000 -1.082000
       Atomic Center    9 is at  -2.432000  1.629000  0.637000
       Atomic Center   10 is at   0.428000  1.231000 -0.378000
       Atomic Center   11 is at  -0.067000  1.720000  1.233000
       Atomic Center   12 is at  -0.426000  3.358000 -1.338000
       Atomic Center   13 is at   1.194000  4.010000  1.195000
       Atomic Center   14 is at   1.057000  5.001000 -0.239000
       Atomic Center   15 is at  -2.510000 -0.553000  0.045000
       Atomic Center   16 is at  -1.288000  4.919000  0.059000
       Atomic Center   17 is at   2.374000  2.386000 -0.065000
       Atomic Center   18 is at   3.095000  3.834000 -0.205000
     826 points will be used for fitting atomic charges
 Fitting point charges to eletrostatic potential
 Charges from ESP fit, RMS=   0.00163 RRMS=   0.10461:
 Charge=   0.00000 Dipole=    -0.0166     1.4903     0.0451 Tot=     1.4911
              1
     1  C    0.117179
     2  C    0.162899
     3  C    0.050659
     4  C    0.216005
     5  O   -0.657598
     6  O   -0.641432
     7  N   -0.973305
     8  H    0.007871
     9  H    0.043849
    10  H    0.025273
    11  H    0.029894
    12  H    0.054207
    13  H   -0.018471
    14  H    0.042756
    15  H    0.414832
    16  H    0.402586
    17  H    0.340810
    18  H    0.381989
 -----------------------------------------------------------------

              Electrostatic Properties (Atomic Units)

 -----------------------------------------------------------------
    Center     Electric         -------- Electric Field --------
               Potential          X             Y             Z
 -----------------------------------------------------------------
    1 Atom    -14.702538
    2 Atom    -14.746030
    3 Atom    -14.687288
    4 Atom    -14.717502
    5 Atom    -22.329761
    6 Atom    -22.317980
    7 Atom    -18.369128
    8 Atom     -1.136973
    9 Atom     -1.140306
   10 Atom     -1.123668
   11 Atom     -1.130462
   12 Atom     -1.133111
   13 Atom     -1.136844
   14 Atom     -1.122282
   15 Atom     -1.008411
   16 Atom     -0.996879
   17 Atom     -1.064996
   18 Atom     -1.062239
 -----------------------------------------------------------------
 Leave Link  602 at Wed Jul 19 17:44:44 2017, MaxMem=  134217728 cpu:       0.1
 (Enter /home/mikolaj/local/opt/g03/l9999.exe)
 1\1\GINC-EIGEN\SP\RB3LYP\6-31G(d)\C4H11N1O2\MIKOLAJ\19-Jul-2017\0\\#P 
 B3LYP/6-31G* NoSymm POP=MK\\Input file generated by MolarisTools.\\0,1
 \C,0,-1.695,1.207,-0.053\C,0,-0.319,1.819,0.169\C,0,-0.257,3.288,-0.25
 6\C,0,1.086,3.959,0.104\O,0,-1.616,-0.196,0.183\O,0,-1.317,4.003,0.387
 \N,0,2.26,3.314,-0.476\H,0,-2.035,1.363,-1.082\H,0,-2.432,1.629,0.637\
 H,0,0.428,1.231,-0.378\H,0,-0.067,1.72,1.233\H,0,-0.426,3.358,-1.338\H
 ,0,1.194,4.01,1.195\H,0,1.057,5.001,-0.239\H,0,-2.51,-0.553,0.045\H,0,
 -1.288,4.919,0.059\H,0,2.374,2.386,-0.065\H,0,3.095,3.834,-0.205\\Vers
 ion=EM64L-G03RevE.01\HF=-364.2056346\RMSD=1.242e-05\Thermal=0.\Dipole=
 -0.0220076,0.579577,0.0133343\PG=C01 [X(C4H11N1O2)]\\@


 EVERYTHING'S GOT A MORAL, IF ONLY YOU CAN FIND IT.

                                    -- LEWIS CARROL, ALICE IN WONDERLAND
 Job cpu time:  0 days  0 hours  0 minutes 37.5 seconds.
 File lengths (MBytes):  RWF=     21 Int=      0 D2E=      0 Chk=     10 Scr=      1
 Normal termination of Gaussian 03 at Wed Jul 19 17:44:46 2017.
